<?xml version="1.0" encoding="UTF-8"?>

<!-- generated on 2022-08-02 00:39:23 by Eclipse SUMO sumo Version 1.9.2
<configuration xmlns:xsi="http://www.w3.org/2001/XMLSchema-instance" xsi:noNamespaceSchemaLocation="http://sumo.dlr.de/xsd/sumoConfiguration.xsd">

    <input>
        <net-file value="network/GridBuffer4/GridBuffer.net.xml"/>
        <route-files value="network/GridBuffer4/GridBuffer.rou.xml"/>
        <additional-files value="network/GridBuffer4/GridBuffer.add.xml"/>
    </input>

    <output>
        <queue-output value="network/GridBuffer4/queue.xml"/>
    </output>

    <time>
        <begin value="0"/>
        <end value="10800"/>
    </time>

    <processing>
        <time-to-teleport value="120"/>
    </processing>

    <report>
        <verbose value="true"/>
        <no-warnings value="true"/>
        <no-step-log value="true"/>
    </report>

    <traci_server>
        <remote-port value="62945"/>
    </traci_server>

    <gui_only>
        <quit-on-end value="true"/>
        <start value="true"/>
    </gui_only>

</configuration>
-->

<queue-export xmlns:xsi="http://www.w3.org/2001/XMLSchema-instance" xsi:noNamespaceSchemaLocation="http://sumo.dlr.de/xsd/queue_file.xsd">
    <data timestep="0.00">
        <lanes/>
    </data>
    <data timestep="1.00">
        <lanes/>
    </data>
    <data timestep="2.00">
        <lanes/>
    </data>
    <data timestep="3.00">
        <lanes/>
    </data>
    <data timestep="4.00">
        <lanes/>
    </data>
    <data timestep="5.00">
        <lanes/>
    </data>
    <data timestep="6.00">
        <lanes/>
    </data>
    <data timestep="7.00">
        <lanes/>
    </data>
    <data timestep="8.00">
        <lanes/>
    </data>
    <data timestep="9.00">
        <lanes/>
    </data>
    <data timestep="10.00">
        <lanes/>
    </data>
    <data timestep="11.00">
        <lanes/>
    </data>
    <data timestep="12.00">
        <lanes/>
    </data>
    <data timestep="13.00">
        <lanes/>
    </data>
    <data timestep="14.00">
        <lanes/>
    </data>
    <data timestep="15.00">
        <lanes/>
    </data>
    <data timestep="16.00">
        <lanes/>
    </data>
    <data timestep="17.00">
        <lanes/>
    </data>
    <data timestep="18.00">
        <lanes/>
    </data>
    <data timestep="19.00">
        <lanes/>
    </data>
    <data timestep="20.00">
        <lanes/>
    </data>
    <data timestep="21.00">
        <lanes/>
    </data>
    <data timestep="22.00">
        <lanes/>
    </data>
    <data timestep="23.00">
        <lanes/>
    </data>
    <data timestep="24.00">
        <lanes/>
    </data>
    <data timestep="25.00">
        <lanes/>
    </data>
    <data timestep="26.00">
        <lanes/>
    </data>
    <data timestep="27.00">
        <lanes/>
    </data>
    <data timestep="28.00">
        <lanes/>
    </data>
    <data timestep="29.00">
        <lanes/>
    </data>
    <data timestep="30.00">
        <lanes/>
    </data>
    <data timestep="31.00">
        <lanes/>
    </data>
    <data timestep="32.00">
        <lanes/>
    </data>
    <data timestep="33.00">
        <lanes/>
    </data>
    <data timestep="34.00">
        <lanes/>
    </data>
    <data timestep="35.00">
        <lanes/>
    </data>
    <data timestep="36.00">
        <lanes/>
    </data>
    <data timestep="37.00">
        <lanes>
            <lane id="16_2" queueing_time="0.00" queueing_length="0.00" queueing_length_experimental="7.64"/>
            <lane id="17_2" queueing_time="0.00" queueing_length="0.00" queueing_length_experimental="7.94"/>
            <lane id="25_2" queueing_time="0.00" queueing_length="0.00" queueing_length_experimental="7.85"/>
            <lane id="94_0" queueing_time="0.00" queueing_length="0.00" queueing_length_experimental="7.40"/>
            <lane id="95_0" queueing_time="0.00" queueing_length="0.00" queueing_length_experimental="7.34"/>
        </lanes>
    </data>
    <data timestep="38.00">
        <lanes>
            <lane id="16_2" queueing_time="0.00" queueing_length="0.00" queueing_length_experimental="6.98"/>
            <lane id="17_2" queueing_time="0.00" queueing_length="0.00" queueing_length_experimental="7.16"/>
            <lane id="21_2" queueing_time="0.00" queueing_length="0.00" queueing_length_experimental="7.51"/>
            <lane id="25_2" queueing_time="0.00" queueing_length="0.00" queueing_length_experimental="7.10"/>
            <lane id="38_2" queueing_time="0.00" queueing_length="0.00" queueing_length_experimental="7.64"/>
            <lane id="39_2" queueing_time="0.00" queueing_length="0.00" queueing_length_experimental="7.47"/>
            <lane id="42_2" queueing_time="0.00" queueing_length="0.00" queueing_length_experimental="7.47"/>
            <lane id="45_2" queueing_time="0.00" queueing_length="0.00" queueing_length_experimental="7.77"/>
            <lane id="53_2" queueing_time="0.00" queueing_length="0.00" queueing_length_experimental="7.40"/>
            <lane id="94_0" queueing_time="0.00" queueing_length="0.00" queueing_length_experimental="6.83"/>
            <lane id="95_0" queueing_time="0.00" queueing_length="0.00" queueing_length_experimental="6.80"/>
        </lanes>
    </data>
    <data timestep="39.00">
        <lanes>
            <lane id="16_2" queueing_time="0.00" queueing_length="0.00" queueing_length_experimental="6.58"/>
            <lane id="17_2" queueing_time="0.00" queueing_length="0.00" queueing_length_experimental="6.69"/>
            <lane id="19_0" queueing_time="0.00" queueing_length="0.00" queueing_length_experimental="7.62"/>
            <lane id="20_2" queueing_time="0.00" queueing_length="0.00" queueing_length_experimental="7.66"/>
            <lane id="21_2" queueing_time="0.00" queueing_length="0.00" queueing_length_experimental="6.90"/>
            <lane id="23_0" queueing_time="0.00" queueing_length="0.00" queueing_length_experimental="7.54"/>
            <lane id="25_2" queueing_time="0.00" queueing_length="0.00" queueing_length_experimental="6.66"/>
            <lane id="38_2" queueing_time="0.00" queueing_length="0.00" queueing_length_experimental="6.98"/>
            <lane id="39_2" queueing_time="0.00" queueing_length="0.00" queueing_length_experimental="6.87"/>
            <lane id="41_2" queueing_time="0.00" queueing_length="0.00" queueing_length_experimental="8.01"/>
            <lane id="42_2" queueing_time="0.00" queueing_length="0.00" queueing_length_experimental="6.88"/>
            <lane id="43_1" queueing_time="0.00" queueing_length="0.00" queueing_length_experimental="7.59"/>
            <lane id="45_2" queueing_time="0.00" queueing_length="0.00" queueing_length_experimental="7.05"/>
            <lane id="53_2" queueing_time="0.00" queueing_length="0.00" queueing_length_experimental="6.84"/>
            <lane id="60_0" queueing_time="0.00" queueing_length="0.00" queueing_length_experimental="7.80"/>
            <lane id="94_0" queueing_time="0.00" queueing_length="0.00" queueing_length_experimental="6.50"/>
            <lane id="95_0" queueing_time="0.00" queueing_length="0.00" queueing_length_experimental="6.48"/>
        </lanes>
    </data>
    <data timestep="40.00">
        <lanes>
            <lane id="16_2" queueing_time="0.00" queueing_length="0.00" queueing_length_experimental="6.35"/>
            <lane id="17_2" queueing_time="0.00" queueing_length="0.00" queueing_length_experimental="6.41"/>
            <lane id="19_0" queueing_time="0.00" queueing_length="0.00" queueing_length_experimental="6.97"/>
            <lane id="20_2" queueing_time="0.00" queueing_length="0.00" queueing_length_experimental="6.99"/>
            <lane id="21_2" queueing_time="0.00" queueing_length="0.00" queueing_length_experimental="6.54"/>
            <lane id="23_0" queueing_time="0.00" queueing_length="0.00" queueing_length_experimental="6.92"/>
            <lane id="25_2" queueing_time="0.00" queueing_length="0.00" queueing_length_experimental="6.39"/>
            <lane id="26_2" queueing_time="0.00" queueing_length="0.00" queueing_length_experimental="7.31"/>
            <lane id="38_2" queueing_time="0.00" queueing_length="0.00" queueing_length_experimental="6.58"/>
            <lane id="39_2" queueing_time="0.00" queueing_length="0.00" queueing_length_experimental="6.52"/>
            <lane id="41_2" queueing_time="0.00" queueing_length="0.00" queueing_length_experimental="7.20"/>
            <lane id="42_2" queueing_time="0.00" queueing_length="0.00" queueing_length_experimental="6.52"/>
            <lane id="43_0" queueing_time="0.00" queueing_length="0.00" queueing_length_experimental="7.35"/>
            <lane id="43_1" queueing_time="0.00" queueing_length="0.00" queueing_length_experimental="6.95"/>
            <lane id="45_2" queueing_time="0.00" queueing_length="0.00" queueing_length_experimental="6.63"/>
            <lane id="53_2" queueing_time="0.00" queueing_length="0.00" queueing_length_experimental="6.50"/>
            <lane id="55_2" queueing_time="0.00" queueing_length="0.00" queueing_length_experimental="7.95"/>
            <lane id="56_1" queueing_time="0.00" queueing_length="0.00" queueing_length_experimental="7.25"/>
            <lane id="57_2" queueing_time="0.00" queueing_length="0.00" queueing_length_experimental="7.98"/>
            <lane id="60_0" queueing_time="0.00" queueing_length="0.00" queueing_length_experimental="7.07"/>
            <lane id="94_0" queueing_time="0.00" queueing_length="0.00" queueing_length_experimental="6.30"/>
            <lane id="95_0" queueing_time="0.00" queueing_length="0.00" queueing_length_experimental="6.28"/>
        </lanes>
    </data>
    <data timestep="41.00">
        <lanes>
            <lane id="16_2" queueing_time="0.00" queueing_length="0.00" queueing_length_experimental="6.21"/>
            <lane id="17_2" queueing_time="0.00" queueing_length="0.00" queueing_length_experimental="6.25"/>
            <lane id="19_0" queueing_time="0.00" queueing_length="0.00" queueing_length_experimental="6.58"/>
            <lane id="20_2" queueing_time="0.00" queueing_length="0.00" queueing_length_experimental="6.59"/>
            <lane id="21_2" queueing_time="0.00" queueing_length="0.00" queueing_length_experimental="6.32"/>
            <lane id="23_0" queueing_time="0.00" queueing_length="0.00" queueing_length_experimental="6.55"/>
            <lane id="25_2" queueing_time="0.00" queueing_length="0.00" queueing_length_experimental="15.17"/>
            <lane id="26_2" queueing_time="0.00" queueing_length="0.00" queueing_length_experimental="6.78"/>
            <lane id="37_2" queueing_time="0.00" queueing_length="0.00" queueing_length_experimental="7.53"/>
            <lane id="38_2" queueing_time="0.00" queueing_length="0.00" queueing_length_experimental="6.35"/>
            <lane id="39_2" queueing_time="0.00" queueing_length="0.00" queueing_length_experimental="6.31"/>
            <lane id="41_2" queueing_time="0.00" queueing_length="0.00" queueing_length_experimental="6.71"/>
            <lane id="42_2" queueing_time="0.00" queueing_length="0.00" queueing_length_experimental="6.31"/>
            <lane id="43_0" queueing_time="0.00" queueing_length="0.00" queueing_length_experimental="6.80"/>
            <lane id="43_1" queueing_time="0.00" queueing_length="0.00" queueing_length_experimental="6.57"/>
            <lane id="45_2" queueing_time="0.00" queueing_length="0.00" queueing_length_experimental="6.38"/>
            <lane id="53_2" queueing_time="0.00" queueing_length="0.00" queueing_length_experimental="6.30"/>
            <lane id="55_2" queueing_time="0.00" queueing_length="0.00" queueing_length_experimental="7.17"/>
            <lane id="56_1" queueing_time="0.00" queueing_length="0.00" queueing_length_experimental="6.74"/>
            <lane id="57_2" queueing_time="0.00" queueing_length="0.00" queueing_length_experimental="7.18"/>
            <lane id="59_2" queueing_time="0.00" queueing_length="0.00" queueing_length_experimental="7.34"/>
            <lane id="60_0" queueing_time="0.00" queueing_length="0.00" queueing_length_experimental="6.64"/>
            <lane id="62_2" queueing_time="0.00" queueing_length="0.00" queueing_length_experimental="7.40"/>
            <lane id="63_2" queueing_time="0.00" queueing_length="0.00" queueing_length_experimental="7.40"/>
            <lane id="94_0" queueing_time="0.00" queueing_length="0.00" queueing_length_experimental="6.18"/>
            <lane id="95_0" queueing_time="0.00" queueing_length="0.00" queueing_length_experimental="6.17"/>
            <lane id="95_1" queueing_time="0.00" queueing_length="0.00" queueing_length_experimental="7.36"/>
        </lanes>
    </data>
    <data timestep="42.00">
        <lanes>
            <lane id="16_2" queueing_time="1.00" queueing_length="6.12" queueing_length_experimental="6.12"/>
            <lane id="17_2" queueing_time="1.00" queueing_length="6.15" queueing_length_experimental="6.15"/>
            <lane id="19_0" queueing_time="0.00" queueing_length="0.00" queueing_length_experimental="6.35"/>
            <lane id="19_2" queueing_time="0.00" queueing_length="0.00" queueing_length_experimental="7.35"/>
            <lane id="20_2" queueing_time="0.00" queueing_length="0.00" queueing_length_experimental="6.35"/>
            <lane id="21_2" queueing_time="0.00" queueing_length="0.00" queueing_length_experimental="6.19"/>
            <lane id="23_0" queueing_time="0.00" queueing_length="0.00" queueing_length_experimental="6.33"/>
            <lane id="25_2" queueing_time="1.00" queueing_length="6.14" queueing_length_experimental="14.53"/>
            <lane id="26_2" queueing_time="0.00" queueing_length="0.00" queueing_length_experimental="6.47"/>
            <lane id="37_2" queueing_time="0.00" queueing_length="0.00" queueing_length_experimental="6.91"/>
            <lane id="38_2" queueing_time="0.00" queueing_length="0.00" queueing_length_experimental="6.21"/>
            <lane id="39_2" queueing_time="0.00" queueing_length="0.00" queueing_length_experimental="6.19"/>
            <lane id="41_2" queueing_time="0.00" queueing_length="0.00" queueing_length_experimental="6.43"/>
            <lane id="42_2" queueing_time="0.00" queueing_length="0.00" queueing_length_experimental="6.19"/>
            <lane id="43_0" queueing_time="0.00" queueing_length="0.00" queueing_length_experimental="6.48"/>
            <lane id="43_1" queueing_time="0.00" queueing_length="0.00" queueing_length_experimental="6.34"/>
            <lane id="45_2" queueing_time="0.00" queueing_length="0.00" queueing_length_experimental="6.22"/>
            <lane id="53_2" queueing_time="0.00" queueing_length="0.00" queueing_length_experimental="6.18"/>
            <lane id="55_2" queueing_time="0.00" queueing_length="0.00" queueing_length_experimental="6.70"/>
            <lane id="56_0" queueing_time="0.00" queueing_length="0.00" queueing_length_experimental="7.73"/>
            <lane id="56_1" queueing_time="0.00" queueing_length="0.00" queueing_length_experimental="6.44"/>
            <lane id="57_2" queueing_time="0.00" queueing_length="0.00" queueing_length_experimental="6.71"/>
            <lane id="59_2" queueing_time="0.00" queueing_length="0.00" queueing_length_experimental="6.80"/>
            <lane id="60_0" queueing_time="0.00" queueing_length="0.00" queueing_length_experimental="6.38"/>
            <lane id="60_2" queueing_time="0.00" queueing_length="0.00" queueing_length_experimental="7.38"/>
            <lane id="62_2" queueing_time="0.00" queueing_length="0.00" queueing_length_experimental="6.84"/>
            <lane id="63_2" queueing_time="0.00" queueing_length="0.00" queueing_length_experimental="6.84"/>
            <lane id="94_0" queueing_time="1.00" queueing_length="6.11" queueing_length_experimental="15.45"/>
            <lane id="95_0" queueing_time="1.00" queueing_length="6.10" queueing_length_experimental="6.10"/>
            <lane id="95_1" queueing_time="0.00" queueing_length="0.00" queueing_length_experimental="6.81"/>
            <lane id="95_2" queueing_time="0.00" queueing_length="0.00" queueing_length_experimental="7.95"/>
        </lanes>
    </data>
    <data timestep="43.00">
        <lanes>
            <lane id="16_2" queueing_time="2.00" queueing_length="6.07" queueing_length_experimental="6.07"/>
            <lane id="17_2" queueing_time="2.00" queueing_length="6.09" queueing_length_experimental="6.09"/>
            <lane id="19_0" queueing_time="0.00" queueing_length="0.00" queueing_length_experimental="6.21"/>
            <lane id="19_2" queueing_time="0.00" queueing_length="0.00" queueing_length_experimental="6.81"/>
            <lane id="20_2" queueing_time="0.00" queueing_length="0.00" queueing_length_experimental="6.21"/>
            <lane id="21_2" queueing_time="1.00" queueing_length="6.11" queueing_length_experimental="6.11"/>
            <lane id="23_0" queueing_time="0.00" queueing_length="0.00" queueing_length_experimental="6.20"/>
            <lane id="25_2" queueing_time="2.00" queueing_length="6.08" queueing_length_experimental="14.14"/>
            <lane id="26_2" queueing_time="0.00" queueing_length="0.00" queueing_length_experimental="15.40"/>
            <lane id="34_2" queueing_time="0.00" queueing_length="0.00" queueing_length_experimental="7.55"/>
            <lane id="35_2" queueing_time="0.00" queueing_length="0.00" queueing_length_experimental="7.78"/>
            <lane id="37_2" queueing_time="0.00" queueing_length="0.00" queueing_length_experimental="15.66"/>
            <lane id="38_2" queueing_time="1.00" queueing_length="6.12" queueing_length_experimental="6.12"/>
            <lane id="39_2" queueing_time="1.00" queueing_length="6.11" queueing_length_experimental="6.11"/>
            <lane id="41_2" queueing_time="0.00" queueing_length="0.00" queueing_length_experimental="6.25"/>
            <lane id="42_2" queueing_time="1.00" queueing_length="6.11" queueing_length_experimental="6.11"/>
            <lane id="43_0" queueing_time="0.00" queueing_length="0.00" queueing_length_experimental="6.29"/>
            <lane id="43_1" queueing_time="0.00" queueing_length="0.00" queueing_length_experimental="6.20"/>
            <lane id="45_2" queueing_time="1.00" queueing_length="6.13" queueing_length_experimental="6.13"/>
            <lane id="53_2" queueing_time="1.00" queueing_length="6.11" queueing_length_experimental="6.11"/>
            <lane id="55_2" queueing_time="0.00" queueing_length="0.00" queueing_length_experimental="15.54"/>
            <lane id="56_0" queueing_time="0.00" queueing_length="0.00" queueing_length_experimental="7.03"/>
            <lane id="56_1" queueing_time="0.00" queueing_length="0.00" queueing_length_experimental="6.27"/>
            <lane id="57_2" queueing_time="0.00" queueing_length="0.00" queueing_length_experimental="6.42"/>
            <lane id="59_2" queueing_time="0.00" queueing_length="0.00" queueing_length_experimental="6.48"/>
            <lane id="60_0" queueing_time="0.00" queueing_length="0.00" queueing_length_experimental="6.23"/>
            <lane id="60_2" queueing_time="0.00" queueing_length="0.00" queueing_length_experimental="6.82"/>
            <lane id="62_2" queueing_time="0.00" queueing_length="0.00" queueing_length_experimental="15.32"/>
            <lane id="63_2" queueing_time="0.00" queueing_length="0.00" queueing_length_experimental="6.50"/>
            <lane id="94_0" queueing_time="2.00" queueing_length="6.06" queueing_length_experimental="14.68"/>
            <lane id="95_0" queueing_time="2.00" queueing_length="6.06" queueing_length_experimental="6.06"/>
            <lane id="95_1" queueing_time="0.00" queueing_length="0.00" queueing_length_experimental="15.40"/>
            <lane id="95_2" queueing_time="0.00" queueing_length="0.00" queueing_length_experimental="7.16"/>
        </lanes>
    </data>
    <data timestep="44.00">
        <lanes>
            <lane id="16_2" queueing_time="3.00" queueing_length="6.04" queueing_length_experimental="6.04"/>
            <lane id="17_2" queueing_time="3.00" queueing_length="6.05" queueing_length_experimental="6.05"/>
            <lane id="19_0" queueing_time="1.00" queueing_length="6.12" queueing_length_experimental="6.12"/>
            <lane id="19_2" queueing_time="0.00" queueing_length="0.00" queueing_length_experimental="6.48"/>
            <lane id="20_2" queueing_time="1.00" queueing_length="6.13" queueing_length_experimental="6.13"/>
            <lane id="21_2" queueing_time="2.00" queueing_length="6.07" queueing_length_experimental="6.07"/>
            <lane id="23_0" queueing_time="1.00" queueing_length="6.12" queueing_length_experimental="6.12"/>
            <lane id="25_2" queueing_time="3.00" queueing_length="6.05" queueing_length_experimental="13.89"/>
            <lane id="26_2" queueing_time="0.00" queueing_length="0.00" queueing_length_experimental="14.67"/>
            <lane id="27_1" queueing_time="0.00" queueing_length="0.00" queueing_length_experimental="7.37"/>
            <lane id="34_2" queueing_time="0.00" queueing_length="0.00" queueing_length_experimental="6.93"/>
            <lane id="35_2" queueing_time="0.00" queueing_length="0.00" queueing_length_experimental="7.06"/>
            <lane id="37_2" queueing_time="0.00" queueing_length="0.00" queueing_length_experimental="14.87"/>
            <lane id="38_2" queueing_time="2.00" queueing_length="6.07" queueing_length_experimental="6.07"/>
            <lane id="39_2" queueing_time="2.00" queueing_length="6.07" queueing_length_experimental="6.07"/>
            <lane id="41_2" queueing_time="0.00" queueing_length="0.00" queueing_length_experimental="6.15"/>
            <lane id="42_2" queueing_time="2.00" queueing_length="6.07" queueing_length_experimental="6.07"/>
            <lane id="43_0" queueing_time="0.00" queueing_length="0.00" queueing_length_experimental="6.17"/>
            <lane id="43_1" queueing_time="1.00" queueing_length="6.12" queueing_length_experimental="6.12"/>
            <lane id="45_2" queueing_time="2.00" queueing_length="6.08" queueing_length_experimental="6.08"/>
            <lane id="53_2" queueing_time="2.00" queueing_length="6.06" queueing_length_experimental="6.06"/>
            <lane id="55_2" queueing_time="0.00" queueing_length="0.00" queueing_length_experimental="14.78"/>
            <lane id="56_0" queueing_time="0.00" queueing_length="0.00" queueing_length_experimental="15.68"/>
            <lane id="56_1" queueing_time="0.00" queueing_length="0.00" queueing_length_experimental="6.16"/>
            <lane id="57_2" queueing_time="0.00" queueing_length="0.00" queueing_length_experimental="6.25"/>
            <lane id="59_2" queueing_time="0.00" queueing_length="0.00" queueing_length_experimental="6.29"/>
            <lane id="60_0" queueing_time="1.00" queueing_length="6.14" queueing_length_experimental="6.14"/>
            <lane id="60_2" queueing_time="0.00" queueing_length="0.00" queueing_length_experimental="6.49"/>
            <lane id="61_2" queueing_time="0.00" queueing_length="0.00" queueing_length_experimental="8.01"/>
            <lane id="62_2" queueing_time="0.00" queueing_length="0.00" queueing_length_experimental="14.66"/>
            <lane id="63_2" queueing_time="0.00" queueing_length="0.00" queueing_length_experimental="15.37"/>
            <lane id="94_0" queueing_time="3.00" queueing_length="6.04" queueing_length_experimental="14.21"/>
            <lane id="94_1" queueing_time="0.00" queueing_length="0.00" queueing_length_experimental="7.28"/>
            <lane id="95_0" queueing_time="3.00" queueing_length="6.04" queueing_length_experimental="14.83"/>
            <lane id="95_1" queueing_time="0.00" queueing_length="0.00" queueing_length_experimental="14.70"/>
            <lane id="95_2" queueing_time="0.00" queueing_length="0.00" queueing_length_experimental="6.69"/>
        </lanes>
    </data>
    <data timestep="45.00">
        <lanes>
            <lane id="16_2" queueing_time="4.00" queueing_length="6.03" queueing_length_experimental="6.03"/>
            <lane id="17_2" queueing_time="4.00" queueing_length="6.03" queueing_length_experimental="6.03"/>
            <lane id="19_0" queueing_time="2.00" queueing_length="6.07" queueing_length_experimental="6.07"/>
            <lane id="19_2" queueing_time="0.00" queueing_length="0.00" queueing_length_experimental="15.03"/>
            <lane id="20_2" queueing_time="2.00" queueing_length="6.08" queueing_length_experimental="6.08"/>
            <lane id="21_2" queueing_time="3.00" queueing_length="6.04" queueing_length_experimental="6.04"/>
            <lane id="23_0" queueing_time="2.00" queueing_length="6.07" queueing_length_experimental="6.07"/>
            <lane id="25_2" queueing_time="4.00" queueing_length="6.03" queueing_length_experimental="13.74"/>
            <lane id="26_2" queueing_time="1.00" queueing_length="6.10" queueing_length_experimental="14.22"/>
            <lane id="27_1" queueing_time="0.00" queueing_length="0.00" queueing_length_experimental="6.82"/>
            <lane id="34_2" queueing_time="0.00" queueing_length="0.00" queueing_length_experimental="6.55"/>
            <lane id="35_2" queueing_time="0.00" queueing_length="0.00" queueing_length_experimental="15.73"/>
            <lane id="37_2" queueing_time="0.00" queueing_length="0.00" queueing_length_experimental="14.36"/>
            <lane id="38_2" queueing_time="3.00" queueing_length="6.04" queueing_length_experimental="6.04"/>
            <lane id="39_2" queueing_time="3.00" queueing_length="6.04" queueing_length_experimental="6.04"/>
            <lane id="41_2" queueing_time="1.00" queueing_length="6.09" queueing_length_experimental="6.09"/>
            <lane id="42_2" queueing_time="3.00" queueing_length="6.04" queueing_length_experimental="6.04"/>
            <lane id="43_0" queueing_time="1.00" queueing_length="6.10" queueing_length_experimental="6.10"/>
            <lane id="43_1" queueing_time="2.00" queueing_length="6.07" queueing_length_experimental="6.07"/>
            <lane id="45_2" queueing_time="3.00" queueing_length="6.05" queueing_length_experimental="6.05"/>
            <lane id="53_2" queueing_time="3.00" queueing_length="6.04" queueing_length_experimental="6.04"/>
            <lane id="55_2" queueing_time="1.00" queueing_length="6.15" queueing_length_experimental="14.30"/>
            <lane id="56_0" queueing_time="0.00" queueing_length="0.00" queueing_length_experimental="14.89"/>
            <lane id="56_1" queueing_time="1.00" queueing_length="6.09" queueing_length_experimental="6.09"/>
            <lane id="57_2" queueing_time="0.00" queueing_length="0.00" queueing_length_experimental="6.15"/>
            <lane id="59_2" queueing_time="0.00" queueing_length="0.00" queueing_length_experimental="6.17"/>
            <lane id="60_0" queueing_time="2.00" queueing_length="6.08" queueing_length_experimental="6.08"/>
            <lane id="60_2" queueing_time="0.00" queueing_length="0.00" queueing_length_experimental="6.29"/>
            <lane id="61_0" queueing_time="0.00" queueing_length="0.00" queueing_length_experimental="7.26"/>
            <lane id="61_2" queueing_time="0.00" queueing_length="0.00" queueing_length_experimental="7.20"/>
            <lane id="62_2" queueing_time="0.00" queueing_length="0.00" queueing_length_experimental="14.23"/>
            <lane id="63_2" queueing_time="0.00" queueing_length="0.00" queueing_length_experimental="14.66"/>
            <lane id="94_0" queueing_time="4.00" queueing_length="6.02" queueing_length_experimental="13.93"/>
            <lane id="94_1" queueing_time="0.00" queueing_length="0.00" queueing_length_experimental="6.76"/>
            <lane id="95_0" queueing_time="4.00" queueing_length="6.02" queueing_length_experimental="14.30"/>
            <lane id="95_1" queueing_time="0.00" queueing_length="0.00" queueing_length_experimental="14.26"/>
            <lane id="95_2" queueing_time="0.00" queueing_length="0.00" queueing_length_experimental="6.41"/>
        </lanes>
    </data>
    <data timestep="46.00">
        <lanes>
            <lane id="16_2" queueing_time="5.00" queueing_length="6.02" queueing_length_experimental="6.02"/>
            <lane id="17_2" queueing_time="5.00" queueing_length="6.02" queueing_length_experimental="15.00"/>
            <lane id="19_0" queueing_time="3.00" queueing_length="6.04" queueing_length_experimental="6.04"/>
            <lane id="19_2" queueing_time="0.00" queueing_length="0.00" queueing_length_experimental="14.46"/>
            <lane id="20_1" queueing_time="0.00" queueing_length="0.00" queueing_length_experimental="7.32"/>
            <lane id="20_2" queueing_time="3.00" queueing_length="6.04" queueing_length_experimental="14.92"/>
            <lane id="21_2" queueing_time="4.00" queueing_length="6.02" queueing_length_experimental="6.02"/>
            <lane id="23_0" queueing_time="3.00" queueing_length="6.04" queueing_length_experimental="6.04"/>
            <lane id="25_2" queueing_time="5.00" queueing_length="13.65" queueing_length_experimental="13.65"/>
            <lane id="26_2" queueing_time="2.00" queueing_length="6.06" queueing_length_experimental="13.95"/>
            <lane id="27_1" queueing_time="0.00" queueing_length="0.00" queueing_length_experimental="6.49"/>
            <lane id="34_2" queueing_time="0.00" queueing_length="0.00" queueing_length_experimental="6.33"/>
            <lane id="35_2" queueing_time="0.00" queueing_length="0.00" queueing_length_experimental="14.92"/>
            <lane id="37_2" queueing_time="1.00" queueing_length="6.12" queueing_length_experimental="14.04"/>
            <lane id="38_2" queueing_time="4.00" queueing_length="6.03" queueing_length_experimental="6.03"/>
            <lane id="39_2" queueing_time="4.00" queueing_length="6.02" queueing_length_experimental="6.02"/>