<?xml version="1.0" encoding="UTF-8"?>

<!-- generated on 2023-07-19 21:48:13 by Eclipse SUMO GUI Version 1.10.0
<configuration xmlns:xsi="http://www.w3.org/2001/XMLSchema-instance" xsi:noNamespaceSchemaLocation="http://sumo.dlr.de/xsd/sumoConfiguration.xsd">

    <input>
        <net-file value="network/Bloomsbury/Bloomsbury.net.xml"/>
        <route-files value="network/Bloomsbury/Bloomsbury.rou.xml"/>
        <additional-files value="network/Bloomsbury/Bloomsbury.add.xml"/>
    </input>

    <output>
        <queue-output value="network/Bloomsbury/queue.xml"/>
    </output>

    <processing>
        <time-to-teleport value="120"/>
    </processing>

    <report>
        <verbose value="true"/>
        <no-warnings value="true"/>
        <no-step-log value="true"/>
    </report>

    <traci_server>
        <remote-port value="1409"/>
    </traci_server>

    <gui_only>
        <quit-on-end value="true"/>
        <start value="true"/>
    </gui_only>

</configuration>
-->

<queue-export xmlns:xsi="http://www.w3.org/2001/XMLSchema-instance" xsi:noNamespaceSchemaLocation="http://sumo.dlr.de/xsd/queue_file.xsd">
    <data timestep="0.00">
        <lanes/>
    </data>
    <data timestep="1.00">
        <lanes/>
    </data>
    <data timestep="2.00">
        <lanes/>
    </data>
    <data timestep="3.00">
        <lanes/>
    </data>
    <data timestep="4.00">
        <lanes/>
    </data>
    <data timestep="5.00">
        <lanes/>
    </data>
    <data timestep="6.00">
        <lanes/>
    </data>
    <data timestep="7.00">
        <lanes/>
    </data>
    <data timestep="8.00">
        <lanes/>
    </data>
    <data timestep="9.00">
        <lanes/>
    </data>
    <data timestep="10.00">
        <lanes/>
    </data>
    <data timestep="11.00">
        <lanes/>
    </data>
    <data timestep="12.00">
        <lanes/>
    </data>
    <data timestep="13.00">
        <lanes/>
    </data>
    <data timestep="14.00">
        <lanes/>
    </data>
    <data timestep="15.00">
        <lanes/>
    </data>
    <data timestep="16.00">
        <lanes/>
    </data>
    <data timestep="17.00">
        <lanes/>
    </data>
    <data timestep="18.00">
        <lanes/>
    </data>
    <data timestep="19.00">
        <lanes/>
    </data>
    <data timestep="20.00">
        <lanes/>
    </data>
    <data timestep="21.00">
        <lanes/>
    </data>
    <data timestep="22.00">
        <lanes/>
    </data>
    <data timestep="23.00">
        <lanes/>
    </data>
    <data timestep="24.00">
        <lanes/>
    </data>
    <data timestep="25.00">
        <lanes/>
    </data>
    <data timestep="26.00">
        <lanes/>
    </data>
    <data timestep="27.00">
        <lanes/>
    </data>
    <data timestep="28.00">
        <lanes/>
    </data>
    <data timestep="29.00">
        <lanes/>
    </data>
    <data timestep="30.00">
        <lanes/>
    </data>
    <data timestep="31.00">
        <lanes/>
    </data>
    <data timestep="32.00">
        <lanes/>
    </data>
    <data timestep="33.00">
        <lanes/>
    </data>
    <data timestep="34.00">
        <lanes/>
    </data>
    <data timestep="35.00">
        <lanes/>
    </data>
    <data timestep="36.00">
        <lanes>
            <lane id="1063_0" queueing_time="0.00" queueing_length="0.00" queueing_length_experimental="7.93"/>
            <lane id="1065_2" queueing_time="0.00" queueing_length="0.00" queueing_length_experimental="7.97"/>
            <lane id="1069_2" queueing_time="0.00" queueing_length="0.00" queueing_length_experimental="7.31"/>
        </lanes>
    </data>
    <data timestep="37.00">
        <lanes>
            <lane id="1038_2" queueing_time="0.00" queueing_length="0.00" queueing_length_experimental="7.40"/>
            <lane id="1044_0" queueing_time="0.00" queueing_length="0.00" queueing_length_experimental="6.47"/>
            <lane id="1063_0" queueing_time="0.00" queueing_length="0.00" queueing_length_experimental="7.15"/>
            <lane id="1065_2" queueing_time="0.00" queueing_length="0.00" queueing_length_experimental="7.18"/>
            <lane id="1069_2" queueing_time="0.00" queueing_length="0.00" queueing_length_experimental="6.78"/>
        </lanes>
    </data>
    <data timestep="38.00">
        <lanes>
            <lane id="1038_2" queueing_time="0.00" queueing_length="0.00" queueing_length_experimental="6.83"/>
            <lane id="1044_0" queueing_time="0.00" queueing_length="0.00" queueing_length_experimental="5.92"/>
            <lane id="1063_0" queueing_time="0.00" queueing_length="0.00" queueing_length_experimental="6.69"/>
            <lane id="1065_2" queueing_time="0.00" queueing_length="0.00" queueing_length_experimental="6.70"/>
            <lane id="1069_2" queueing_time="0.00" queueing_length="0.00" queueing_length_experimental="6.47"/>
            <lane id="1071_2" queueing_time="0.00" queueing_length="0.00" queueing_length_experimental="7.56"/>
        </lanes>
    </data>
    <data timestep="39.00">
        <lanes>
            <lane id="1038_2" queueing_time="0.00" queueing_length="0.00" queueing_length_experimental="15.63"/>
            <lane id="1044_0" queueing_time="0.00" queueing_length="0.00" queueing_length_experimental="5.59"/>
            <lane id="1044_2" queueing_time="0.00" queueing_length="0.00" queueing_length_experimental="7.95"/>
            <lane id="1063_0" queueing_time="0.00" queueing_length="0.00" queueing_length_experimental="6.41"/>
            <lane id="1065_2" queueing_time="0.00" queueing_length="0.00" queueing_length_experimental="6.42"/>
            <lane id="1068_0" queueing_time="0.00" queueing_length="0.00" queueing_length_experimental="7.38"/>
            <lane id="1068_2" queueing_time="0.00" queueing_length="0.00" queueing_length_experimental="7.56"/>
            <lane id="1069_2" queueing_time="0.00" queueing_length="0.00" queueing_length_experimental="6.28"/>
            <lane id="1071_2" queueing_time="0.00" queueing_length="0.00" queueing_length_experimental="6.93"/>
        </lanes>
    </data>
    <data timestep="40.00">
        <lanes>
            <lane id="1038_2" queueing_time="0.00" queueing_length="0.00" queueing_length_experimental="14.84"/>
            <lane id="1044_0" queueing_time="0.00" queueing_length="0.00" queueing_length_experimental="14.09"/>
            <lane id="1044_2" queueing_time="0.00" queueing_length="0.00" queueing_length_experimental="7.17"/>
            <lane id="1057_0" queueing_time="0.00" queueing_length="0.00" queueing_length_experimental="7.74"/>
            <lane id="1063_0" queueing_time="0.00" queueing_length="0.00" queueing_length_experimental="6.24"/>
            <lane id="1065_2" queueing_time="0.00" queueing_length="0.00" queueing_length_experimental="15.26"/>
            <lane id="1068_0" queueing_time="0.00" queueing_length="0.00" queueing_length_experimental="6.83"/>
            <lane id="1068_2" queueing_time="0.00" queueing_length="0.00" queueing_length_experimental="6.93"/>
            <lane id="1069_2" queueing_time="0.00" queueing_length="0.00" queueing_length_experimental="6.17"/>
            <lane id="1071_2" queueing_time="0.00" queueing_length="0.00" queueing_length_experimental="6.55"/>
            <lane id="1075_2" queueing_time="0.00" queueing_length="0.00" queueing_length_experimental="7.25"/>
        </lanes>
    </data>
    <data timestep="41.00">
        <lanes>
            <lane id="1038_0" queueing_time="0.00" queueing_length="0.00" queueing_length_experimental="7.65"/>
            <lane id="1038_2" queueing_time="0.00" queueing_length="0.00" queueing_length_experimental="14.34"/>
            <lane id="1044_0" queueing_time="0.00" queueing_length="0.00" queueing_length_experimental="13.53"/>
            <lane id="1044_2" queueing_time="0.00" queueing_length="0.00" queueing_length_experimental="6.70"/>
            <lane id="1055_2" queueing_time="0.00" queueing_length="0.00" queueing_length_experimental="7.29"/>
            <lane id="1057_0" queueing_time="0.00" queueing_length="0.00" queueing_length_experimental="7.04"/>
            <lane id="1057_1" queueing_time="0.00" queueing_length="0.00" queueing_length_experimental="7.99"/>
            <lane id="1060_2" queueing_time="0.00" queueing_length="0.00" queueing_length_experimental="8.02"/>
            <lane id="1063_0" queueing_time="1.00" queueing_length="6.15" queueing_length_experimental="15.30"/>
            <lane id="1065_2" queueing_time="0.00" queueing_length="0.00" queueing_length_experimental="14.59"/>
            <lane id="1067_0" queueing_time="0.00" queueing_length="0.00" queueing_length_experimental="7.60"/>
            <lane id="1068_0" queueing_time="0.00" queueing_length="0.00" queueing_length_experimental="6.49"/>
            <lane id="1068_2" queueing_time="0.00" queueing_length="0.00" queueing_length_experimental="6.56"/>
            <lane id="1069_0" queueing_time="0.00" queueing_length="0.00" queueing_length_experimental="7.31"/>
            <lane id="1069_2" queueing_time="1.00" queueing_length="6.10" queueing_length_experimental="6.10"/>
            <lane id="1071_2" queueing_time="0.00" queueing_length="0.00" queueing_length_experimental="6.33"/>
            <lane id="1075_2" queueing_time="0.00" queueing_length="0.00" queueing_length_experimental="6.75"/>
            <lane id="1120_2" queueing_time="0.00" queueing_length="0.00" queueing_length_experimental="7.73"/>
        </lanes>
    </data>
    <data timestep="42.00">
        <lanes>
            <lane id="1038_0" queueing_time="0.00" queueing_length="0.00" queueing_length_experimental="6.98"/>
            <lane id="1038_2" queueing_time="1.00" queueing_length="6.11" queueing_length_experimental="14.03"/>
            <lane id="1042_2" queueing_time="0.00" queueing_length="0.00" queueing_length_experimental="7.88"/>
            <lane id="1044_0" queueing_time="0.00" queueing_length="0.00" queueing_length_experimental="13.18"/>
            <lane id="1044_2" queueing_time="0.00" queueing_length="0.00" queueing_length_experimental="15.43"/>
            <lane id="1055_2" queueing_time="0.00" queueing_length="0.00" queueing_length_experimental="6.77"/>
            <lane id="1057_0" queueing_time="0.00" queueing_length="0.00" queueing_length_experimental="6.62"/>
            <lane id="1057_1" queueing_time="0.00" queueing_length="0.00" queueing_length_experimental="7.19"/>
            <lane id="1060_2" queueing_time="0.00" queueing_length="0.00" queueing_length_experimental="7.20"/>
            <lane id="1063_0" queueing_time="2.00" queueing_length="6.09" queueing_length_experimental="14.60"/>
            <lane id="1065_2" queueing_time="1.00" queueing_length="6.09" queueing_length_experimental="14.17"/>
            <lane id="1067_0" queueing_time="0.00" queueing_length="0.00" queueing_length_experimental="6.96"/>
            <lane id="1068_0" queueing_time="0.00" queueing_length="0.00" queueing_length_experimental="15.21"/>
            <lane id="1068_2" queueing_time="0.00" queueing_length="0.00" queueing_length_experimental="6.33"/>
            <lane id="1069_0" queueing_time="0.00" queueing_length="0.00" queueing_length_experimental="6.78"/>
            <lane id="1069_2" queueing_time="2.00" queueing_length="6.06" queueing_length_experimental="6.06"/>
            <lane id="1071_2" queueing_time="0.00" queueing_length="0.00" queueing_length_experimental="15.46"/>
            <lane id="1075_2" queueing_time="0.00" queueing_length="0.00" queueing_length_experimental="6.45"/>
            <lane id="1120_2" queueing_time="0.00" queueing_length="0.00" queueing_length_experimental="7.03"/>
        </lanes>
    </data>
    <data timestep="43.00">
        <lanes>
            <lane id="1038_0" queueing_time="0.00" queueing_length="0.00" queueing_length_experimental="6.59"/>
            <lane id="1038_2" queueing_time="2.00" queueing_length="6.06" queueing_length_experimental="13.83"/>
            <lane id="1040_0" queueing_time="0.00" queueing_length="0.00" queueing_length_experimental="6.86"/>
            <lane id="1042_2" queueing_time="0.00" queueing_length="0.00" queueing_length_experimental="7.12"/>
            <lane id="1044_2" queueing_time="0.00" queueing_length="0.00" queueing_length_experimental="14.71"/>
            <lane id="1055_2" queueing_time="0.00" queueing_length="0.00" queueing_length_experimental="6.46"/>
            <lane id="1057_0" queueing_time="0.00" queueing_length="0.00" queueing_length_experimental="6.37"/>
            <lane id="1057_1" queueing_time="0.00" queueing_length="0.00" queueing_length_experimental="6.71"/>
            <lane id="1060_2" queueing_time="0.00" queueing_length="0.00" queueing_length_experimental="6.72"/>
            <lane id="1063_0" queueing_time="3.00" queueing_length="6.05" queueing_length_experimental="14.17"/>
            <lane id="1065_2" queueing_time="2.00" queueing_length="6.05" queueing_length_experimental="13.91"/>
            <lane id="1067_0" queueing_time="0.00" queueing_length="0.00" queueing_length_experimental="6.57"/>
            <lane id="1068_0" queueing_time="0.00" queueing_length="0.00" queueing_length_experimental="14.56"/>
            <lane id="1068_2" queueing_time="0.00" queueing_length="0.00" queueing_length_experimental="6.20"/>
            <lane id="1069_0" queueing_time="0.00" queueing_length="0.00" queueing_length_experimental="6.47"/>
            <lane id="1069_2" queueing_time="3.00" queueing_length="6.04" queueing_length_experimental="15.39"/>
            <lane id="1071_2" queueing_time="1.00" queueing_length="6.12" queueing_length_experimental="14.70"/>
            <lane id="1075_2" queueing_time="0.00" queueing_length="0.00" queueing_length_experimental="15.29"/>
            <lane id="1120_2" queueing_time="0.00" queueing_length="0.00" queueing_length_experimental="6.62"/>
        </lanes>
    </data>
    <data timestep="44.00">
        <lanes>
            <lane id="1038_0" queueing_time="0.00" queueing_length="0.00" queueing_length_experimental="6.35"/>
            <lane id="1038_2" queueing_time="3.00" queueing_length="6.04" queueing_length_experimental="23.01"/>
            <lane id="1040_0" queueing_time="0.00" queueing_length="0.00" queueing_length_experimental="6.15"/>
            <lane id="1042_2" queueing_time="0.00" queueing_length="0.00" queueing_length_experimental="6.67"/>
            <lane id="1044_2" queueing_time="1.00" queueing_length="6.15" queueing_length_experimental="14.26"/>
            <lane id="1055_2" queueing_time="0.00" queueing_length="0.00" queueing_length_experimental="6.27"/>
            <lane id="1057_0" queueing_time="0.00" queueing_length="0.00" queueing_length_experimental="6.22"/>
            <lane id="1057_1" queueing_time="0.00" queueing_length="0.00" queueing_length_experimental="6.42"/>
            <lane id="1060_2" queueing_time="0.00" queueing_length="0.00" queueing_length_experimental="6.43"/>
            <lane id="1063_0" queueing_time="4.00" queueing_length="6.03" queueing_length_experimental="13.91"/>
            <lane id="1065_2" queueing_time="3.00" queueing_length="6.03" queueing_length_experimental="13.75"/>
            <lane id="1067_0" queueing_time="0.00" queueing_length="0.00" queueing_length_experimental="6.34"/>
            <lane id="1067_2" queueing_time="0.00" queueing_length="0.00" queueing_length_experimental="7.98"/>
            <lane id="1068_0" queueing_time="1.00" queueing_length="6.11" queueing_length_experimental="14.16"/>
            <lane id="1068_2" queueing_time="1.00" queueing_length="6.12" queueing_length_experimental="6.12"/>
            <lane id="1069_0" queueing_time="0.00" queueing_length="0.00" queueing_length_experimental="6.28"/>
            <lane id="1069_2" queueing_time="4.00" queueing_length="6.02" queueing_length_experimental="14.63"/>
            <lane id="1071_2" queueing_time="2.00" queueing_length="6.07" queueing_length_experimental="14.23"/>
            <lane id="1075_2" queueing_time="0.00" queueing_length="0.00" queueing_length_experimental="14.61"/>
            <lane id="1120_2" queueing_time="0.00" queueing_length="0.00" queueing_length_experimental="6.37"/>
        </lanes>
    </data>
    <data timestep="45.00">
        <lanes>
            <lane id="1038_0" queueing_time="0.00" queueing_length="0.00" queueing_length_experimental="6.21"/>
            <lane id="1038_2" queueing_time="4.00" queueing_length="13.63" queueing_length_experimental="22.23"/>
            <lane id="1040_0" queueing_time="0.00" queueing_length="0.00" queueing_length_experimental="5.73"/>
            <lane id="1042_2" queueing_time="0.00" queueing_length="0.00" queueing_length_experimental="6.40"/>
            <lane id="1044_2" queueing_time="2.00" queueing_length="6.09" queueing_length_experimental="23.03"/>
            <lane id="1055_2" queueing_time="0.00" queueing_length="0.00" queueing_length_experimental="6.16"/>
            <lane id="1057_0" queueing_time="1.00" queueing_length="6.13" queueing_length_experimental="6.13"/>
            <lane id="1057_1" queueing_time="0.00" queueing_length="0.00" queueing_length_experimental="6.25"/>
            <lane id="1060_2" queueing_time="0.00" queueing_length="0.00" queueing_length_experimental="6.26"/>
            <lane id="1063_0" queueing_time="5.00" queueing_length="6.02" queueing_length_experimental="22.57"/>
            <lane id="1065_2" queueing_time="4.00" queueing_length="13.66" queueing_length_experimental="13.66"/>
            <lane id="1067_0" queueing_time="0.00" queueing_length="0.00" queueing_length_experimental="6.20"/>
            <lane id="1067_2" queueing_time="0.00" queueing_length="0.00" queueing_length_experimental="7.18"/>
            <lane id="1068_0" queueing_time="2.00" queueing_length="6.06" queueing_length_experimental="13.91"/>
            <lane id="1068_2" queueing_time="2.00" queueing_length="6.07" queueing_length_experimental="14.82"/>
            <lane id="1069_0" queueing_time="0.00" queueing_length="0.00" queueing_length_experimental="6.17"/>
            <lane id="1069_2" queueing_time="5.00" queueing_length="6.01" queueing_length_experimental="14.18"/>
            <lane id="1071_2" queueing_time="3.00" queueing_length="6.04" queueing_length_experimental="13.95"/>
            <lane id="1075_2" queueing_time="1.00" queueing_length="6.10" queueing_length_experimental="14.18"/>
            <lane id="1120_2" queueing_time="0.00" queueing_length="0.00" queueing_length_experimental="6.22"/>
        </lanes>
    </data>
    <data timestep="46.00">
        <lanes>
            <lane id="1038_0" queueing_time="1.00" queueing_length="6.12" queueing_length_experimental="6.12"/>
            <lane id="1038_2" queueing_time="5.00" queueing_length="13.58" queueing_length_experimental="21.76"/>
            <lane id="1040_0" queueing_time="0.00" queueing_length="0.00" queueing_length_experimental="14.23"/>
            <lane id="1042_2" queueing_time="0.00" queueing_length="0.00" queueing_length_experimental="6.24"/>
            <lane id="1044_2" queueing_time="3.00" queueing_length="6.05" queueing_length_experimental="22.29"/>
            <lane id="1055_2" queueing_time="1.00" queueing_length="6.10" queueing_length_experimental="6.10"/>
            <lane id="1057_0" queueing_time="2.00" queueing_length="6.08" queueing_length_experimental="6.08"/>
            <lane id="1057_1" queueing_time="0.00" queueing_length="0.00" queueing_length_experimental="6.15"/>
            <lane id="1060_2" queueing_time="0.00" queueing_length="0.00" queueing_length_experimental="15.40"/>
            <lane id="1063_0" queueing_time="6.00" queueing_length="13.65" queueing_length_experimental="21.97"/>
            <lane id="1065_2" queueing_time="5.00" queueing_length="13.60" queueing_length_experimental="23.04"/>
            <lane id="1067_0" queueing_time="1.00" queueing_length="6.12" queueing_length_experimental="6.12"/>
            <lane id="1067_2" queueing_time="0.00" queueing_length="0.00" queueing_length_experimental="6.70"/>
            <lane id="1068_0" queueing_time="3.00" queueing_length="6.04" queueing_length_experimental="13.75"/>
            <lane id="1068_2" queueing_time="3.00" queueing_length="6.04" queueing_length_experimental="14.30"/>
            <lane id="1069_0" queueing_time="1.00" queueing_length="6.10" queueing_length_experimental="6.10"/>
            <lane id="1069_2" queueing_time="6.00" queueing_length="6.01" queueing_length_experimental="23.30"/>
            <lane id="1071_2" queueing_time="4.00" queueing_length="6.03" queueing_length_experimental="22.94"/>
            <lane id="1075_2" queueing_time="2.00" queueing_length="6.06" queueing_length_experimental="13.92"/>
            <lane id="1120_2" queueing_time="1.00" queueing_length="6.13" queueing_length_experimental="6.13"/>
        </lanes>
    </data>
    <data timestep="47.00">
        <lanes>
            <lane id="1038_0" queueing_time="2.00" queueing_length="6.07" queueing_length_experimental="6.07"/>
            <lane id="1038_2" queueing_time="6.00" queueing_length="13.55" queueing_length_experimental="21.47"/>
            <lane id="1040_0" queueing_time="0.00" queueing_length="0.00" queueing_length_experimental="13.62"/>
            <lane id="1042_2" queueing_time="1.00" queueing_length="6.14" queueing_length_experimental="6.14"/>
            <lane id="1044_2" queueing_time="4.00" queueing_length="6.03" queueing_length_experimental="21.82"/>
            <lane id="1055_2" queueing_time="2.00" queueing_length="6.06" queueing_length_experimental="6.06"/>
            <lane id="1057_0" queueing_time="3.00" queueing_length="6.05" queueing_length_experimental="6.05"/>
            <lane id="1057_1" queueing_time="1.00" queueing_length="6.09" queueing_length_experimental="6.09"/>
            <lane id="1060_2" queueing_time="1.00" queueing_length="6.09" queueing_length_experimental="14.66"/>
            <lane id="1063_0" queueing_time="7.00" queueing_length="13.59" queueing_length_experimental="30.40"/>
            <lane id="1065_2" queueing_time="6.00" queueing_length="13.56" queueing_length_experimental="22.24"/>
            <lane id="1067_0" queueing_time="2.00" queueing_length="6.07" queueing_length_experimental="6.07"/>
            <lane id="1067_2" queueing_time="0.00" queueing_length="0.00" queueing_length_experimental="15.21"/>
            <lane id="1068_0" queueing_time="4.00" queueing_length="13.66" queueing_length_experimental="13.66"/>
            <lane id="1068_2" queueing_time="4.00" queueing_length="6.03" queueing_length_experimental="23.22"/>
            <lane id="1069_0" queueing_time="2.00" queueing_length="6.06" queueing_length_experimental="6.06"/>
            <lane id="1069_2" queueing_time="7.00" queueing_length="6.01" queueing_length_experimental="22.43"/>
            <lane id="1071_2" queueing_time="5.00" queueing_length="6.02" queueing_length_experimental="22.20"/>
            <lane id="1075_2" queueing_time="3.00" queueing_length="6.03" queueing_length_experimental="22.58"/>
            <lane id="1120_2" queueing_time="2.00" queueing_length="6.08" queueing_length_experimental="6.08"/>
        </lanes>
    </data>
    <data timestep="48.00">
        <lanes>
            <lane id="1038_0" queueing_time="3.00" queueing_length="6.04" queueing_length_experimental="6.04"/>
            <lane id="1038_2" queueing_time="7.00" queueing_length="13.53" queueing_length_experimental="21.29"/>
            <lane id="1040_0" queueing_time="0.00" queueing_length="0.00" queueing_length_experimental="13.24"/>
            <lane id="1042_2" queueing_time="2.00" queueing_length="6.09" queueing_length_experimental="6.09"/>
            <lane id="1044_2" queueing_time="5.00" queueing_length="13.62" queueing_length_experimental="21.52"/>
            <lane id="1055_2" queueing_time="3.00" queueing_length="6.04" queueing_length_experimental="6.04"/>
            <lane id="1057_0" queueing_time="4.00" queueing_length="6.03" queueing_length_experimental="6.03"/>
            <lane id="1057_1" queueing_time="2.00" queueing_length="6.05" queueing_length_experimental="6.05"/>
            <lane id="1060_2" queueing_time="2.00" queueing_length="6.05" queueing_length_experimental="23.39"/>
            <lane id="1063_0" queueing_time="8.00" queueing_length="13.56" queueing_length_experimental="29.74"/>
            <lane id="1065_2" queueing_time="7.00" queueing_length="13.54" queueing_length_experimental="21.75"/>
            <lane id="1067_0" queueing_time="3.00" queueing_length="6.04" queueing_length_experimental="6.04"/>
            <lane id="1067_2" queueing_time="0.00" queueing_length="0.00" queueing_length_experimental="14.58"/>
            <lane id="1068_0" queueing_time="5.00" queueing_length="13.60" queueing_length_experimental="13.60"/>
            <lane id="1068_2" queueing_time="5.00" queueing_length="6.02" queueing_length_experimental="22.40"/>
            <lane id="1069_0" queueing_time="3.00" queueing_length="6.04" queueing_length_experimental="6.04"/>
            <lane id="1069_2" queueing_time="8.00" queueing_length="13.65" queueing_length_experimental="21.89"/>
            <lane id="1071_2" queueing_time="6.00" queueing_length="13.60" queueing_length_experimental="21.74"/>
            <lane id="1075_2" queueing_time="4.00" queueing_length="13.66" queueing_length_experimental="21.99"/>
            <lane id="1120_2" queueing_time="3.00" queueing_length="6.05" queueing_length_experimental="6.05"/>
        </lanes>
    </data>
    <data timestep="49.00">
        <lanes>
            <lane id="1038_0" queueing_time="4.00" queueing_length="6.03" queueing_length_experimental="6.03"/>
            <lane id="1038_2" queueing_time="8.00" queueing_length="13.52" queueing_length_experimental="21.18"/>
            <lane id="1042_2" queueing_time="3.00" queueing_length="6.05" queueing_length_experimental="6.05"/>
            <lane id="1044_2" queueing_time="6.00" queueing_length="13.57" queueing_length_experimental="21.33"/>
            <lane id="1055_2" queueing_time="4.00" queueing_length="6.02" queueing_length_experimental="6.02"/>
            <lane id="1057_0" queueing_time="5.00" queueing_length="6.02" queueing_length_experimental="6.02"/>
            <lane id="1057_1" queueing_time="3.00" queueing_length="6.03" queueing_length_experimental="6.03"/>
            <lane id="1060_2" queueing_time="3.00" queueing_length="6.03" queueing_length_experimental="22.54"/>
            <lane id="1063_0" queueing_time="9.00" queueing_length="13.54" queueing_length_experimental="29.30"/>
            <lane id="1065_2" queueing_time="8.00" queueing_length="13.52" queueing_length_experimental="21.45"/>
            <lane id="1067_0" queueing_time="4.00" queueing_length="6.03" queueing_length_experimental="6.03"/>
            <lane id="1067_2" queueing_time="0.00" queueing_length="0.00" queueing_length_experimental="14.18"/>
            <lane id="1068_0" queueing_time="6.00" queueing_length="13.56" queueing_length_experimental="13.56"/>
            <lane id="1068_2" queueing_time="6.00" queueing_length="6.01" queueing_length_experimental="21.88"/>
            <lane id="1069_0" queueing_time="4.00" queueing_length="6.02" queueing_length_experimental="6.02"/>
            <lane id="1069_2" queueing_time="9.00" queueing_length="13.59" queueing_length_experimental="21.56"/>
            <lane id="1071_2" queueing_time="7.00" queueing_length="13.56" queueing_length_experimental="21.46"/>
            <lane id="1075_2" queueing_time="5.00" queueing_length="13.60" queueing_length_experimental="21.61"/>
            <lane id="1120_2" queueing_time="4.00" queueing_length="6.03" queueing_length_experimental="6.03"/>
        </lanes>
    </data>
    <data timestep="50.00">
        <lanes>
            <lane id="1038_0" queueing_time="5.00" queueing_length="6.02" queueing_length_experimental="6.02"/>
            <lane id="1038_2" queueing_time="9.00" queueing_length="21.11" queueing_length_experimental="21.11"/>
            <lane id="1042_2" queueing_time="4.00" queueing_length="6.03" queueing_length_experimental="6.03"/>
            <lane id="1044_2" queueing_time="7.00" queueing_length="13.54" queueing_length_experimental="21.21"/>
            <lane id="1055_2" queueing_time="5.00" queueing_length="6.01" queueing_length_experimental="6.01"/>
            <lane id="1057_0" queueing_time="6.00" queueing_length="6.01" queueing_length_experimental="6.01"/>
            <lane id="1057_1" queueing_time="4.00" queueing_length="6.02" queueing_length_experimental="6.02"/>
            <lane id="1060_2" queueing_time="4.00" queueing_length="6.02" queueing_length_experimental="21.98"/>
            <lane id="1063_0" queueing_time="10.00" queueing_length="21.15" queueing_length_experimental="29.02"/>
            <lane id="1065_2" queueing_time="9.00" queueing_length="13.52" queueing_length_experimental="21.28"/>
            <lane id="1067_0" queueing_time="5.00" queueing_length="6.02" queueing_length_experimental="6.02"/>
            <lane id="1067_2" queueing_time="1.00" queueing_length="6.09" queueing_length_experimental="13.93"/>
            <lane id="1068_0" queueing_time="7.00" queueing_length="13.54" queueing_length_experimental="13.54"/>
            <lane id="1068_2" queueing_time="7.00" queueing_length="13.61" queueing_length_experimental="21.55"/>
            <lane id="1069_0" queueing_time="5.00" queueing_length="6.01" queueing_length_experimental="6.01"/>
            <lane id="1069_2" queueing_time="10.00" queueing_length="13.56" queueing_length_experimental="30.26"/>
            <lane id="1071_2" queueing_time="8.00" queueing_length="13.54" queueing_length_experimental="21.28"/>
            <lane id="1075_2" queueing_time="6.00" queueing_length="13.56" queueing_length_experimental="21.38"/>
            <lane id="1120_2" queueing_time="5.00" queueing_length="6.02" queueing_length_experimental="6.02"/>