<?xml version="1.0" encoding="UTF-8"?>

<!-- generated on 2023-07-20 21:50:33 by Eclipse SUMO GUI Version 1.10.0
<configuration xmlns:xsi="http://www.w3.org/2001/XMLSchema-instance" xsi:noNamespaceSchemaLocation="http://sumo.dlr.de/xsd/sumoConfiguration.xsd">

    <input>
        <net-file value="network/Bloomsbury/Bloomsbury.net.xml"/>
        <route-files value="network/Bloomsbury/Bloomsbury.rou.xml"/>
        <additional-files value="network/Bloomsbury/Bloomsbury.add.xml"/>
    </input>

    <output>
        <queue-output value="network/Bloomsbury/queue.xml"/>
    </output>

    <processing>
        <time-to-teleport value="120"/>
    </processing>

    <report>
        <verbose value="true"/>
        <no-warnings value="true"/>
        <no-step-log value="true"/>
    </report>

    <traci_server>
        <remote-port value="10823"/>
    </traci_server>

    <gui_only>
        <quit-on-end value="true"/>
        <start value="true"/>
    </gui_only>

</configuration>
-->

<queue-export xmlns:xsi="http://www.w3.org/2001/XMLSchema-instance" xsi:noNamespaceSchemaLocation="http://sumo.dlr.de/xsd/queue_file.xsd">
    <data timestep="0.00">
        <lanes/>
    </data>
    <data timestep="1.00">
        <lanes/>
    </data>
    <data timestep="2.00">
        <lanes>
            <lane id="1071_2" queueing_time="1.00" queueing_length="472.64" queueing_length_experimental="0.00"/>
        </lanes>
    </data>
    <data timestep="3.00">
        <lanes/>
    </data>
    <data timestep="4.00">
        <lanes/>
    </data>
    <data timestep="5.00">
        <lanes/>
    </data>
    <data timestep="6.00">
        <lanes>
            <lane id="1042_2" queueing_time="1.00" queueing_length="472.63" queueing_length_experimental="0.00"/>
        </lanes>
    </data>
    <data timestep="7.00">
        <lanes/>
    </data>
    <data timestep="8.00">
        <lanes>
            <lane id="1071_2" queueing_time="1.00" queueing_length="472.67" queueing_length_experimental="0.00"/>
        </lanes>
    </data>
    <data timestep="9.00">
        <lanes>
            <lane id="1067_2" queueing_time="1.00" queueing_length="472.60" queueing_length_experimental="0.00"/>
        </lanes>
    </data>
    <data timestep="10.00">
        <lanes/>
    </data>
    <data timestep="11.00">
        <lanes/>
    </data>
    <data timestep="12.00">
        <lanes/>
    </data>
    <data timestep="13.00">
        <lanes/>
    </data>
    <data timestep="14.00">
        <lanes/>
    </data>
    <data timestep="15.00">
        <lanes/>
    </data>
    <data timestep="16.00">
        <lanes/>
    </data>
    <data timestep="17.00">
        <lanes/>
    </data>
    <data timestep="18.00">
        <lanes/>
    </data>
    <data timestep="19.00">
        <lanes/>
    </data>
    <data timestep="20.00">
        <lanes/>
    </data>
    <data timestep="21.00">
        <lanes/>
    </data>
    <data timestep="22.00">
        <lanes/>
    </data>
    <data timestep="23.00">
        <lanes/>
    </data>
    <data timestep="24.00">
        <lanes/>
    </data>
    <data timestep="25.00">
        <lanes/>
    </data>
    <data timestep="26.00">
        <lanes/>
    </data>
    <data timestep="27.00">
        <lanes/>
    </data>
    <data timestep="28.00">
        <lanes/>
    </data>
    <data timestep="29.00">
        <lanes/>
    </data>
    <data timestep="30.00">
        <lanes/>
    </data>
    <data timestep="31.00">
        <lanes/>
    </data>
    <data timestep="32.00">
        <lanes/>
    </data>
    <data timestep="33.00">
        <lanes/>
    </data>
    <data timestep="34.00">
        <lanes/>
    </data>
    <data timestep="35.00">
        <lanes/>
    </data>
    <data timestep="36.00">
        <lanes/>
    </data>
    <data timestep="37.00">
        <lanes>
            <lane id="1063_0" queueing_time="0.00" queueing_length="0.00" queueing_length_experimental="7.44"/>
            <lane id="1065_0" queueing_time="0.00" queueing_length="0.00" queueing_length_experimental="7.81"/>
        </lanes>
    </data>
    <data timestep="38.00">
        <lanes>
            <lane id="1040_2" queueing_time="0.00" queueing_length="0.00" queueing_length_experimental="7.97"/>
            <lane id="1044_0" queueing_time="0.00" queueing_length="0.00" queueing_length_experimental="6.54"/>
            <lane id="1063_0" queueing_time="0.00" queueing_length="0.00" queueing_length_experimental="6.86"/>
            <lane id="1065_0" queueing_time="0.00" queueing_length="0.00" queueing_length_experimental="7.08"/>
            <lane id="1065_2" queueing_time="0.00" queueing_length="0.00" queueing_length_experimental="7.31"/>
            <lane id="1071_2" queueing_time="0.00" queueing_length="0.00" queueing_length_experimental="7.38"/>
        </lanes>
    </data>
    <data timestep="39.00">
        <lanes>
            <lane id="1040_2" queueing_time="0.00" queueing_length="0.00" queueing_length_experimental="7.17"/>
            <lane id="1044_0" queueing_time="0.00" queueing_length="0.00" queueing_length_experimental="5.96"/>
            <lane id="1063_0" queueing_time="0.00" queueing_length="0.00" queueing_length_experimental="6.51"/>
            <lane id="1065_0" queueing_time="0.00" queueing_length="0.00" queueing_length_experimental="6.64"/>
            <lane id="1065_2" queueing_time="0.00" queueing_length="0.00" queueing_length_experimental="6.78"/>
            <lane id="1067_1" queueing_time="0.00" queueing_length="0.00" queueing_length_experimental="7.77"/>
            <lane id="1071_2" queueing_time="0.00" queueing_length="0.00" queueing_length_experimental="6.82"/>
            <lane id="1120_2" queueing_time="0.00" queueing_length="0.00" queueing_length_experimental="7.96"/>
        </lanes>
    </data>
    <data timestep="40.00">
        <lanes>
            <lane id="1040_2" queueing_time="0.00" queueing_length="0.00" queueing_length_experimental="6.70"/>
            <lane id="1044_0" queueing_time="0.00" queueing_length="0.00" queueing_length_experimental="5.61"/>
            <lane id="1063_0" queueing_time="0.00" queueing_length="0.00" queueing_length_experimental="15.15"/>
            <lane id="1063_2" queueing_time="0.00" queueing_length="0.00" queueing_length_experimental="7.80"/>
            <lane id="1065_0" queueing_time="0.00" queueing_length="0.00" queueing_length_experimental="6.38"/>
            <lane id="1065_2" queueing_time="0.00" queueing_length="0.00" queueing_length_experimental="6.47"/>
            <lane id="1067_1" queueing_time="0.00" queueing_length="0.00" queueing_length_experimental="7.06"/>
            <lane id="1069_2" queueing_time="0.00" queueing_length="0.00" queueing_length_experimental="7.75"/>
            <lane id="1071_2" queueing_time="0.00" queueing_length="0.00" queueing_length_experimental="6.49"/>
            <lane id="1075_2" queueing_time="0.00" queueing_length="0.00" queueing_length_experimental="7.35"/>
            <lane id="1120_2" queueing_time="0.00" queueing_length="0.00" queueing_length_experimental="7.17"/>
        </lanes>
    </data>
    <data timestep="41.00">
        <lanes>
            <lane id="1040_2" queueing_time="0.00" queueing_length="0.00" queueing_length_experimental="6.42"/>
            <lane id="1063_0" queueing_time="0.00" queueing_length="0.00" queueing_length_experimental="14.53"/>
            <lane id="1063_2" queueing_time="0.00" queueing_length="0.00" queueing_length_experimental="7.08"/>
            <lane id="1065_0" queueing_time="0.00" queueing_length="0.00" queueing_length_experimental="6.23"/>
            <lane id="1065_2" queueing_time="0.00" queueing_length="0.00" queueing_length_experimental="6.28"/>
            <lane id="1067_1" queueing_time="0.00" queueing_length="0.00" queueing_length_experimental="6.63"/>
            <lane id="1069_2" queueing_time="0.00" queueing_length="0.00" queueing_length_experimental="7.04"/>
            <lane id="1071_2" queueing_time="0.00" queueing_length="0.00" queueing_length_experimental="6.29"/>
            <lane id="1075_2" queueing_time="0.00" queueing_length="0.00" queueing_length_experimental="6.81"/>
            <lane id="1120_2" queueing_time="0.00" queueing_length="0.00" queueing_length_experimental="6.70"/>
        </lanes>
    </data>
    <data timestep="42.00">
        <lanes>
            <lane id="1040_2" queueing_time="0.00" queueing_length="0.00" queueing_length_experimental="6.25"/>
            <lane id="1055_2" queueing_time="0.00" queueing_length="0.00" queueing_length_experimental="7.95"/>
            <lane id="1057_0" queueing_time="0.00" queueing_length="0.00" queueing_length_experimental="7.30"/>
            <lane id="1057_1" queueing_time="0.00" queueing_length="0.00" queueing_length_experimental="7.55"/>
            <lane id="1063_0" queueing_time="1.00" queueing_length="6.11" queueing_length_experimental="14.14"/>
            <lane id="1063_2" queueing_time="0.00" queueing_length="0.00" queueing_length_experimental="6.64"/>
            <lane id="1065_0" queueing_time="1.00" queueing_length="6.14" queueing_length_experimental="6.14"/>
            <lane id="1065_1" queueing_time="0.00" queueing_length="0.00" queueing_length_experimental="7.57"/>
            <lane id="1065_2" queueing_time="0.00" queueing_length="0.00" queueing_length_experimental="6.17"/>
            <lane id="1067_1" queueing_time="0.00" queueing_length="0.00" queueing_length_experimental="6.38"/>
            <lane id="1067_2" queueing_time="0.00" queueing_length="0.00" queueing_length_experimental="7.85"/>
            <lane id="1069_2" queueing_time="0.00" queueing_length="0.00" queueing_length_experimental="6.62"/>
            <lane id="1071_2" queueing_time="0.00" queueing_length="0.00" queueing_length_experimental="6.17"/>
            <lane id="1075_2" queueing_time="0.00" queueing_length="0.00" queueing_length_experimental="6.48"/>
            <lane id="1120_2" queueing_time="0.00" queueing_length="0.00" queueing_length_experimental="15.57"/>
        </lanes>
    </data>
    <data timestep="43.00">
        <lanes>
            <lane id=":26_7_0" queueing_time="0.00" queueing_length="0.00" queueing_length_experimental="6.69"/>
            <lane id="1038_2" queueing_time="0.00" queueing_length="0.00" queueing_length_experimental="7.47"/>
            <lane id="1040_2" queueing_time="0.00" queueing_length="0.00" queueing_length_experimental="14.94"/>
            <lane id="1042_2" queueing_time="0.00" queueing_length="0.00" queueing_length_experimental="7.29"/>
            <lane id="1055_2" queueing_time="0.00" queueing_length="0.00" queueing_length_experimental="7.16"/>
            <lane id="1057_0" queueing_time="0.00" queueing_length="0.00" queueing_length_experimental="6.77"/>
            <lane id="1057_1" queueing_time="0.00" queueing_length="0.00" queueing_length_experimental="6.93"/>
            <lane id="1063_0" queueing_time="2.00" queueing_length="6.07" queueing_length_experimental="13.90"/>
            <lane id="1063_2" queueing_time="0.00" queueing_length="0.00" queueing_length_experimental="6.38"/>
            <lane id="1065_0" queueing_time="2.00" queueing_length="6.08" queueing_length_experimental="6.08"/>
            <lane id="1065_1" queueing_time="0.00" queueing_length="0.00" queueing_length_experimental="6.94"/>
            <lane id="1065_2" queueing_time="1.00" queueing_length="6.10" queueing_length_experimental="6.10"/>
            <lane id="1067_1" queueing_time="0.00" queueing_length="0.00" queueing_length_experimental="6.23"/>
            <lane id="1067_2" queueing_time="0.00" queueing_length="0.00" queueing_length_experimental="7.10"/>
            <lane id="1069_2" queueing_time="0.00" queueing_length="0.00" queueing_length_experimental="6.37"/>
            <lane id="1071_2" queueing_time="1.00" queueing_length="6.10" queueing_length_experimental="15.15"/>
            <lane id="1075_2" queueing_time="0.00" queueing_length="0.00" queueing_length_experimental="15.03"/>
            <lane id="1120_2" queueing_time="0.00" queueing_length="0.00" queueing_length_experimental="14.79"/>
        </lanes>
    </data>
    <data timestep="44.00">
        <lanes>
            <lane id="1038_2" queueing_time="0.00" queueing_length="0.00" queueing_length_experimental="6.88"/>
            <lane id="1040_2" queueing_time="1.00" queueing_length="6.09" queueing_length_experimental="14.38"/>
            <lane id="1042_0" queueing_time="0.00" queueing_length="0.00" queueing_length_experimental="7.35"/>
            <lane id="1042_2" queueing_time="0.00" queueing_length="0.00" queueing_length_experimental="6.77"/>
            <lane id="1055_2" queueing_time="0.00" queueing_length="0.00" queueing_length_experimental="6.69"/>
            <lane id="1057_0" queueing_time="0.00" queueing_length="0.00" queueing_length_experimental="6.46"/>
            <lane id="1057_1" queueing_time="0.00" queueing_length="0.00" queueing_length_experimental="6.55"/>
            <lane id="1063_0" queueing_time="3.00" queueing_length="6.04" queueing_length_experimental="13.75"/>
            <lane id="1063_2" queueing_time="0.00" queueing_length="0.00" queueing_length_experimental="6.23"/>
            <lane id="1065_0" queueing_time="3.00" queueing_length="6.05" queueing_length_experimental="6.05"/>
            <lane id="1065_1" queueing_time="0.00" queueing_length="0.00" queueing_length_experimental="6.56"/>
            <lane id="1065_2" queueing_time="2.00" queueing_length="6.06" queueing_length_experimental="6.06"/>
            <lane id="1067_1" queueing_time="1.00" queueing_length="6.13" queueing_length_experimental="6.13"/>
            <lane id="1067_2" queueing_time="0.00" queueing_length="0.00" queueing_length_experimental="6.66"/>
            <lane id="1068_0" queueing_time="0.00" queueing_length="0.00" queueing_length_experimental="7.46"/>
            <lane id="1069_2" queueing_time="0.00" queueing_length="0.00" queueing_length_experimental="15.33"/>
            <lane id="1071_2" queueing_time="2.00" queueing_length="6.06" queueing_length_experimental="14.50"/>
            <lane id="1075_2" queueing_time="0.00" queueing_length="0.00" queueing_length_experimental="14.46"/>
            <lane id="1120_2" queueing_time="0.00" queueing_length="0.00" queueing_length_experimental="14.31"/>
        </lanes>
    </data>
    <data timestep="45.00">
        <lanes>
            <lane id=":26_3_0" queueing_time="0.00" queueing_length="0.00" queueing_length_experimental="6.61"/>
            <lane id="1038_2" queueing_time="0.00" queueing_length="0.00" queueing_length_experimental="15.38"/>
            <lane id="1040_2" queueing_time="2.00" queueing_length="6.05" queueing_length_experimental="14.04"/>
            <lane id="1042_0" queueing_time="0.00" queueing_length="0.00" queueing_length_experimental="6.81"/>
            <lane id="1042_2" queueing_time="0.00" queueing_length="0.00" queueing_length_experimental="15.26"/>
            <lane id="1055_2" queueing_time="0.00" queueing_length="0.00" queueing_length_experimental="6.41"/>
            <lane id="1057_0" queueing_time="0.00" queueing_length="0.00" queueing_length_experimental="6.28"/>
            <lane id="1057_1" queueing_time="0.00" queueing_length="0.00" queueing_length_experimental="6.33"/>
            <lane id="1063_0" queueing_time="4.00" queueing_length="13.65" queueing_length_experimental="13.65"/>
            <lane id="1063_2" queueing_time="1.00" queueing_length="6.14" queueing_length_experimental="6.14"/>
            <lane id="1065_0" queueing_time="4.00" queueing_length="6.03" queueing_length_experimental="6.03"/>
            <lane id="1065_1" queueing_time="0.00" queueing_length="0.00" queueing_length_experimental="6.33"/>
            <lane id="1065_2" queueing_time="3.00" queueing_length="6.04" queueing_length_experimental="6.04"/>
            <lane id="1067_0" queueing_time="2.00" queueing_length="6.08" queueing_length_experimental="6.08"/>
            <lane id="1067_2" queueing_time="0.00" queueing_length="0.00" queueing_length_experimental="6.39"/>
            <lane id="1068_0" queueing_time="0.00" queueing_length="0.00" queueing_length_experimental="6.87"/>
            <lane id="1068_1" queueing_time="0.00" queueing_length="0.00" queueing_length_experimental="7.93"/>
            <lane id="1069_2" queueing_time="1.00" queueing_length="6.13" queueing_length_experimental="14.62"/>
            <lane id="1071_2" queueing_time="3.00" queueing_length="6.04" queueing_length_experimental="14.11"/>
            <lane id="1075_2" queueing_time="1.00" queueing_length="6.10" queueing_length_experimental="14.10"/>
            <lane id="1120_2" queueing_time="1.00" queueing_length="6.09" queueing_length_experimental="14.00"/>
        </lanes>
    </data>
    <data timestep="46.00">
        <lanes>
            <lane id=":26_3_0" queueing_time="0.00" queueing_length="0.00" queueing_length_experimental="6.00"/>
            <lane id="1038_2" queueing_time="0.00" queueing_length="0.00" queueing_length_experimental="14.70"/>
            <lane id="1040_2" queueing_time="3.00" queueing_length="6.03" queueing_length_experimental="13.83"/>
            <lane id="1042_0" queueing_time="0.00" queueing_length="0.00" queueing_length_experimental="6.48"/>
            <lane id="1042_2" queueing_time="0.00" queueing_length="0.00" queueing_length_experimental="14.62"/>
            <lane id="1055_2" queueing_time="0.00" queueing_length="0.00" queueing_length_experimental="6.25"/>
            <lane id="1057_0" queueing_time="0.00" queueing_length="0.00" queueing_length_experimental="6.17"/>
            <lane id="1057_1" queueing_time="0.00" queueing_length="0.00" queueing_length_experimental="15.43"/>
            <lane id="1057_2" queueing_time="0.00" queueing_length="0.00" queueing_length_experimental="8.06"/>
            <lane id="1063_0" queueing_time="5.00" queueing_length="13.60" queueing_length_experimental="13.60"/>
            <lane id="1063_2" queueing_time="2.00" queueing_length="6.08" queueing_length_experimental="6.08"/>
            <lane id="1065_0" queueing_time="5.00" queueing_length="6.02" queueing_length_experimental="6.02"/>
            <lane id="1065_1" queueing_time="0.00" queueing_length="0.00" queueing_length_experimental="6.20"/>
            <lane id="1065_2" queueing_time="4.00" queueing_length="6.02" queueing_length_experimental="15.29"/>
            <lane id="1067_0" queueing_time="3.00" queueing_length="6.05" queueing_length_experimental="6.05"/>
            <lane id="1067_2" queueing_time="0.00" queueing_length="0.00" queueing_length_experimental="14.95"/>
            <lane id="1068_0" queueing_time="0.00" queueing_length="0.00" queueing_length_experimental="6.52"/>
            <lane id="1068_1" queueing_time="0.00" queueing_length="0.00" queueing_length_experimental="7.15"/>
            <lane id="1069_2" queueing_time="2.00" queueing_length="6.08" queueing_length_experimental="14.19"/>
            <lane id="1071_2" queueing_time="4.00" queueing_length="6.02" queueing_length_experimental="13.87"/>
            <lane id="1075_2" queueing_time="2.00" queueing_length="6.06" queueing_length_experimental="22.87"/>
            <lane id="1120_2" queueing_time="2.00" queueing_length="6.05" queueing_length_experimental="13.81"/>
        </lanes>
    </data>
    <data timestep="47.00">
        <lanes>
            <lane id=":26_3_0" queueing_time="0.00" queueing_length="0.00" queueing_length_experimental="5.64"/>
            <lane id="1038_2" queueing_time="0.00" queueing_length="0.00" queueing_length_experimental="23.36"/>
            <lane id="1040_2" queueing_time="4.00" queueing_length="6.02" queueing_length_experimental="13.70"/>
            <lane id="1042_0" queueing_time="0.00" queueing_length="0.00" queueing_length_experimental="6.29"/>
            <lane id="1042_2" queueing_time="0.00" queueing_length="0.00" queueing_length_experimental="23.32"/>
            <lane id="1055_2" queueing_time="1.00" queueing_length="6.15" queueing_length_experimental="6.15"/>
            <lane id="1057_0" queueing_time="1.00" queueing_length="6.10" queueing_length_experimental="6.10"/>
            <lane id="1057_1" queueing_time="1.00" queueing_length="6.12" queueing_length_experimental="14.68"/>
            <lane id="1057_2" queueing_time="0.00" queueing_length="0.00" queueing_length_experimental="7.23"/>
            <lane id="1063_0" queueing_time="6.00" queueing_length="13.56" queueing_length_experimental="13.56"/>
            <lane id="1063_2" queueing_time="3.00" queueing_length="6.05" queueing_length_experimental="6.05"/>
            <lane id="1065_0" queueing_time="6.00" queueing_length="6.01" queueing_length_experimental="6.01"/>
            <lane id="1065_1" queueing_time="1.00" queueing_length="6.12" queueing_length_experimental="6.12"/>
            <lane id="1065_2" queueing_time="5.00" queueing_length="6.01" queueing_length_experimental="14.57"/>
            <lane id="1067_0" queueing_time="4.00" queueing_length="6.03" queueing_length_experimental="6.03"/>
            <lane id="1067_2" queueing_time="1.00" queueing_length="6.14" queueing_length_experimental="14.40"/>
            <lane id="1068_0" queueing_time="0.00" queueing_length="0.00" queueing_length_experimental="6.31"/>
            <lane id="1068_1" queueing_time="0.00" queueing_length="0.00" queueing_length_experimental="6.69"/>
            <lane id="1069_2" queueing_time="3.00" queueing_length="6.05" queueing_length_experimental="22.76"/>
            <lane id="1071_2" queueing_time="5.00" queueing_length="6.01" queueing_length_experimental="22.69"/>
            <lane id="1075_2" queueing_time="3.00" queueing_length="6.04" queueing_length_experimental="22.18"/>
            <lane id="1120_2" queueing_time="3.00" queueing_length="6.03" queueing_length_experimental="13.70"/>
        </lanes>
    </data>
    <data timestep="48.00">
        <lanes>
            <lane id=":26_3_0" queueing_time="0.00" queueing_length="0.00" queueing_length_experimental="5.42"/>
            <lane id="1038_2" queueing_time="1.00" queueing_length="6.11" queueing_length_experimental="22.55"/>
            <lane id="1040_2" queueing_time="5.00" queueing_length="13.62" queueing_length_experimental="13.62"/>
            <lane id="1042_0" queueing_time="0.00" queueing_length="0.00" queueing_length_experimental="6.17"/>
            <lane id="1042_2" queueing_time="1.00" queueing_length="6.10" queueing_length_experimental="22.51"/>
            <lane id="1055_2" queueing_time="2.00" queueing_length="6.09" queueing_length_experimental="6.09"/>
            <lane id="1057_0" queueing_time="2.00" queueing_length="6.06" queueing_length_experimental="6.06"/>
            <lane id="1057_1" queueing_time="2.00" queueing_length="6.07" queueing_length_experimental="14.22"/>
            <lane id="1057_2" queueing_time="0.00" queueing_length="0.00" queueing_length_experimental="6.73"/>
            <lane id="1063_0" queueing_time="7.00" queueing_length="13.54" queueing_length_experimental="13.54"/>
            <lane id="1063_2" queueing_time="4.00" queueing_length="6.03" queueing_length_experimental="6.03"/>
            <lane id="1065_0" queueing_time="7.00" queueing_length="6.01" queueing_length_experimental="6.01"/>
            <lane id="1065_1" queueing_time="2.00" queueing_length="6.07" queueing_length_experimental="6.07"/>
            <lane id="1065_2" queueing_time="6.00" queueing_length="6.01" queueing_length_experimental="23.21"/>
            <lane id="1067_0" queueing_time="5.00" queueing_length="6.02" queueing_length_experimental="6.02"/>
            <lane id="1067_2" queueing_time="2.00" queueing_length="6.08" queueing_length_experimental="14.06"/>
            <lane id="1068_0" queueing_time="0.00" queueing_length="0.00" queueing_length_experimental="6.19"/>
            <lane id="1068_1" queueing_time="0.00" queueing_length="0.00" queueing_length_experimental="6.41"/>
            <lane id="1069_2" queueing_time="4.00" queueing_length="6.03" queueing_length_experimental="22.12"/>
            <lane id="1071_2" queueing_time="6.00" queueing_length="13.63" queueing_length_experimental="22.04"/>
            <lane id="1075_2" queueing_time="4.00" queueing_length="13.64" queueing_length_experimental="21.74"/>
            <lane id="1120_2" queueing_time="4.00" queueing_length="13.62" queueing_length_experimental="13.62"/>
        </lanes>
    </data>
    <data timestep="49.00">
        <lanes>
            <lane id=":26_3_0" queueing_time="0.00" queueing_length="0.00" queueing_length_experimental="5.29"/>
            <lane id="1038_2" queueing_time="2.00" queueing_length="6.07" queueing_length_experimental="22.01"/>
            <lane id="1040_2" queueing_time="6.00" queueing_length="13.58" queueing_length_experimental="13.58"/>
            <lane id="1042_0" queueing_time="1.00" queueing_length="6.10" queueing_length_experimental="6.10"/>
            <lane id="1042_2" queueing_time="2.00" queueing_length="6.06" queueing_length_experimental="21.98"/>
            <lane id="1055_2" queueing_time="3.00" queueing_length="6.05" queueing_length_experimental="6.05"/>
            <lane id="1057_0" queueing_time="3.00" queueing_length="6.04" queueing_length_experimental="6.04"/>
            <lane id="1057_1" queueing_time="3.00" queueing_length="6.04" queueing_length_experimental="13.94"/>
            <lane id="1057_2" queueing_time="0.00" queueing_length="0.00" queueing_length_experimental="6.44"/>
            <lane id="1063_0" queueing_time="8.00" queueing_length="13.53" queueing_length_experimental="13.53"/>
            <lane id="1063_2" queueing_time="5.00" queueing_length="6.02" queueing_length_experimental="6.02"/>
            <lane id="1065_0" queueing_time="8.00" queueing_length="6.01" queueing_length_experimental="6.01"/>
            <lane id="1065_1" queueing_time="3.00" queueing_length="6.04" queueing_length_experimental="6.04"/>
            <lane id="1065_2" queueing_time="7.00" queueing_length="6.01" queueing_length_experimental="22.41"/>
            <lane id="1067_0" queueing_time="6.00" queueing_length="6.01" queueing_length_experimental="6.01"/>
            <lane id="1067_2" queueing_time="3.00" queueing_length="6.05" queueing_length_experimental="13.84"/>
            <lane id="1068_0" queueing_time="1.00" queueing_length="6.11" queueing_length_experimental="6.11"/>
            <lane id="1068_1" queueing_time="0.00" queueing_length="0.00" queueing_length_experimental="6.24"/>
            <lane id="1069_2" queueing_time="5.00" queueing_length="6.02" queueing_length_experimental="21.71"/>
            <lane id="1071_2" queueing_time="7.00" queueing_length="13.58" queueing_length_experimental="30.65"/>
            <lane id="1075_2" queueing_time="5.00" queueing_length="13.59" queueing_length_experimental="30.68"/>
            <lane id="1120_2" queueing_time="5.00" queueing_length="13.58" queueing_length_experimental="13.58"/>
        </lanes>
    </data>
    <data timestep="50.00">
        <lanes>
            <lane id=":26_3_0" queueing_time="1.00" queueing_length="5.21" queueing_length_experimental="5.21"/>
            <lane id="1038_2" queueing_time="3.00" queueing_length="6.04" queueing_length_experimental="21.66"/>
            <lane id="1040_2" queueing_time="7.00" queueing_length="13.55" queueing_length_experimental="13.55"/>
            <lane id="1042_0" queueing_time="2.00" queueing_length="6.06" queueing_length_experimental="6.06"/>
            <lane id="1042_2" queueing_time="3.00" queueing_length="6.04" queueing_length_experimental="21.64"/>
            <lane id="1055_2" queueing_time="4.00" queueing_length="6.03" queueing_length_experimental="6.03"/>
            <lane id="1057_0" queueing_time="4.00" queueing_length="6.02" queueing_length_experimental="6.02"/>
            <lane id="1057_1" queueing_time="4.00" queueing_length="6.03" queueing_length_experimental="13.77"/>
            <lane id="1057_2" queueing_time="0.00" queueing_length="0.00" queueing_length_experimental="6.26"/>
            <lane id="1063_0" queueing_time="9.00" queueing_length="13.52" queueing_length_experimental="13.52"/>
            <lane id="1063_2" queueing_time="6.00" queueing_length="6.01" queueing_length_experimental="6.01"/>
            <lane id="1065_0" queueing_time="9.00" queueing_length="6.01" queueing_length_experimental="6.01"/>
            <lane id="1065_1" queueing_time="4.00" queueing_length="6.03" queueing_length_experimental="6.03"/>
            <lane id="1065_2" queueing_time="8.00" queueing_length="6.01" queueing_length_experimental="21.90"/>
            <lane id="1067_0" queueing_time="7.00" queueing_length="6.01" queueing_length_experimental="6.01"/>
            <lane id="1067_2" queueing_time="4.00" queueing_length="6.03" queueing_length_experimental="13.71"/>
            <lane id="1068_0" queueing_time="2.00" queueing_length="6.07" queueing_length_experimental="6.07"/>
            <lane id="1068_1" queueing_time="1.00" queueing_length="6.15" queueing_length_experimental="6.15"/>
            <lane id="1069_2" queueing_time="6.00" queueing_length="13.60" queueing_length_experimental="21.45"/>
            <lane id="1071_2" queueing_time="8.00" queueing_length="13.55" queueing_length_experimental="29.89"/>
            <lane id="1075_2" queueing_time="6.00" queueing_length="13.56" queueing_length_experimental="29.88"/>
            <lane id="1120_2" queueing_time="6.00" queueing_length="13.55" queueing_length_experimental="13.55"/>
            <lane id="1205_0" queueing_time="0.00" queueing_length="0.00" queueing_length_experimental="7.67"/>
            <lane id="1211_0" queueing_time="0.00" queueing_length="0.00" queueing_length_experimental="7.43"/>
        </lanes>
    </data>
    <data timestep="51.00">
        <lanes>
            <lane id="1038_2" queueing_time="4.00" queueing_length="13.62" queueing_length_experimental="21.43"/>